         4352
Energy of minimum      1=  9311276.2755195440 first found at step        0
LA         0.0401595953        0.8740860800        0.4841081817
LA        -0.0968452776        0.7856870063       -0.6109966615
LA        -0.2798616583       -0.7798942443        0.5598592858
LA         0.0159060628       -0.8617759318       -0.5070396833
LA         0.3853826766        0.0726952454        0.9198889030
LA         0.6914022270        0.0457283491       -0.7210214134
LA        -0.5341731836        0.0644951901        0.8429112529
LA        -0.4085991911       -0.0324272278       -0.9121376957
LA         0.9066413227        0.4145309214        0.0785215076
LA         0.7860751927       -0.6105007819        0.0968224492
LA        -0.8020804827        0.5967159117       -0.0244339932
LA        -0.8777222536       -0.4751028466        0.0622971156
LA         0.6535698792       -0.0104260237        0.7567943651
LA         0.5115961561        0.1280425639        0.8496319644
LA         0.2691361885        0.1683412982        0.9482757612
LA         0.1922117359        0.1135156214        0.9747660500
LA         0.3015677170        0.1194587682        0.9459315592
LA        -0.3359784119       -0.1361800682        0.9319729051
LA         0.1474516390        0.0084834848        0.9890328835
LA         0.2107026293       -0.0914203724        0.9732660055
LA         0.1363676807        0.1099162890        0.9845416523
LA        -0.0798747075       -0.1235077776        0.9891237840
LA         0.0798229333        0.1054990752        0.9912104945
LA        -0.1112849528        0.0322015856        0.9932666898
LA         0.1240301678       -0.0442362901        0.9912919187
LA        -0.2434694830       -0.2573685514        0.9351385136
LA        -0.1846375301       -0.0256806224        0.9824711131
LA        -0.2498778201       -0.1091694052        0.9621034851
LA        -0.1024475671       -0.0733663798        0.9920291681
LA        -0.2257393178        0.0058761467        0.9741700218
LA        -0.5769844354        0.0502736253        0.8152064302
LA         0.4597893309        0.1262362853        0.8790097676
LA         0.5733670976        0.0534158088        0.8175554554
LA         0.3448706748        0.2214065523        0.9121641060
LA         0.4077157497        0.1242982649        0.9046092022
LA         0.2026541977        0.0115983529        0.9791816759
LA         0.1105123091        0.3049207546        0.9459441648
LA         0.2876802328       -0.0355145298        0.9570678147
LA         0.0885835787        0.2547932757        0.9629295593
LA         0.0666357119        0.2038632956        0.9767289484
LA         0.2359691070        0.2164651041        0.9473444143
LA         0.0348282059        0.0001089525        0.9993933081
LA        -0.2052599751        0.0639843246        0.9766137153
LA        -0.3688169188        0.1739233866        0.9130852841
LA        -0.2774692799        0.0012075951        0.9607337511
LA        -0.3194361738       -0.0305557082        0.9471150297
LA        -0.4722193491        0.1414146904        0.8700636596
LA        -0.4888248698       -0.0901057146        0.8677160866
LA        -0.4129739124       -0.0001320991        0.9107428453
LA         0.3550320888        0.1220105097        0.9268579457
LA         0.3981808930        0.2228134451        0.8898348977
LA         0.2019597404        0.2635990592        0.9432538360
LA         0.3328310061        0.3180558789        0.8877296769
LA         0.1700016244        0.0611640299        0.9835438013
LA         0.1794162192       -0.0413009976        0.9829059202
LA        -0.3013187821       -0.0898297080        0.9492826845
LA         0.2251001086        0.0643195699        0.9722103343
LA        -0.0555528364        0.0396710363        0.9976673249
LA        -0.1671599389        0.0256994172        0.9855947924
LA        -0.1584485245        0.3166683040        0.9352086667
LA        -0.0270056524        0.2423012034        0.9698251500
LA        -0.2379764472        0.2545054656        0.9373335471
LA        -0.3619109344        0.0228021066        0.9319337635
LA        -0.3503226249        0.2277838304        0.9085089901
LA        -0.2740656103        0.2936054303        0.9157968621
LA        -0.5397469699        0.2164633197        0.8135212596
LA         0.3232480669        0.1709124719        0.9307521766
LA         0.3655408898        0.2707234747        0.8905552527
LA         0.3119429419        0.2691883487        0.9111691577
LA         0.2141619477        0.1653323514        0.9627044582
LA         0.1583677206        0.1618016640        0.9740327954
LA         0.1018265202        0.1575231760        0.9822513980
LA         0.1323132360        0.3541815110        0.9257692287
LA        -0.0341410277        0.0932866366        0.9950537642
LA        -0.1219914220        0.2760940992        0.9533572999
LA        -0.1066442069        0.1830050446        0.9773106808
LA        -0.0852456699        0.2344638408        0.9683800303
LA        -0.1852591089        0.1191375401        0.9754410844
LA        -0.2215445212        0.1619949647        0.9616005702
LA        -0.4389186515        0.2503484033        0.8629461712
LA        -0.4211276197        0.1591331100        0.8929323497
LA        -0.2779444006        0.1488219941        0.9489989063
LA         0.3861901085        0.3188215758        0.8655691786
LA         0.3191868134        0.4113715908        0.8537524187
LA         0.5043857325        0.2212430914        0.8346535373
LA         0.2445450762        0.3620176823        0.8995225975
LA         0.2908331962        0.2192458425        0.9313148300
LA         0.1456444833        0.2596400553        0.9546594818
LA         0.0749726950        0.3488405014        0.9341784624
LA         0.1673901628        0.3095554825        0.9360320169
LA         0.0006702369        0.0465380999        0.9989162908
LA         0.0090953914        0.1978967090        0.9801806805
LA        -0.0634362358        0.2851899852        0.9563694455
LA        -0.4040921940        0.2131629801        0.8895341717
LA        -0.2584610008        0.2022666015        0.9446089842
LA        -0.3652521425        0.3178608490        0.8749602009
LA        -0.2947379684        0.2419215899        0.9244476590
LA         0.3531350048        0.3655471233        0.8612032101
LA         0.2785953323        0.3161573267        0.9068788153
LA         0.1888741803        0.3585845693        0.9141901611
LA         0.2574104208        0.2667765301        0.9287465522
LA         0.0309802581        0.2490369649        0.9679983542
LA         0.0447056718        0.1521783714        0.9873414537
LA         0.0529712475        0.2993712825        0.9526651469
LA        -0.0050646722        0.2928363366        0.9561491668
LA        -0.0553771122        0.4242098669        0.9038691079
LA         0.0031065840        0.4321765754        0.9017836530
LA        -0.1801892879        0.2660395074        0.9469713834
LA        -0.2524636233        0.3442231815        0.9043077575
LA        -0.2166376581        0.3056577440        0.9271685223
LA        -0.3438345580        0.3684993145        0.8637048408
LA         0.3723876642        0.4115848233        0.8318205100
LA         0.3911375192        0.4561737471        0.7993228094
LA         0.2099118718        0.4066350523        0.8891484355
LA         0.1802676618        0.2130686168        0.9602631591
LA         0.1538232271        0.4025204263        0.9023944377
LA         0.0170155914        0.3425219724        0.9393557197
LA        -0.0777421928        0.3758298094        0.9234219544
LA        -0.0999739181        0.3264190555        0.9399233032
LA        -0.2075703252        0.4425537624        0.8723879455
LA        -0.1946446656        0.3558079269        0.9140646440
LA        -0.2647620778        0.4308304163        0.8627202296
LA        -0.2874641867        0.3816704977        0.8784600005
LA        -0.3094602713        0.3315216306        0.8912506656
LA         0.2992849141        0.3643995930        0.8818398249
LA         0.2650301348        0.4096496801        0.8728952785
LA         0.2234443089        0.3132968029        0.9229939079
LA         0.1184466170        0.4449952205        0.8876652819
LA         0.0968533733        0.3973940018        0.9125225649
LA        -0.0413687628        0.3351194508        0.9412670074
LA        -0.0688959148        0.5092685086        0.8578455217
LA        -0.1728189505        0.6159342206        0.7686082527
LA        -0.1498332336        0.4532424723        0.8787043094
LA        -0.1722735732        0.4050148691        0.8979336121
LA        -0.2301791274        0.3938471101        0.8898887701
LA        -0.4197216123        0.3028670891        0.8556315179
LA         0.2848934369        0.4560365428        0.8431289351
LA         0.3039354522        0.5009490149        0.8103538272
LA         0.2303736316        0.4536155540        0.8609070328
LA         0.1395724936        0.4915589794        0.8595866965
LA         0.0470624986        0.5251640092        0.8496987023
LA        -0.0329510541        0.4714806299        0.8812605992
LA         0.0391272865        0.3912873769        0.9194363731
LA        -0.0033650418        0.6410000960        0.7675334217
LA        -0.1362866279        0.3663971420        0.9204233208
LA        -0.1272524278        0.5001427791        0.8565418963
LA        -0.3213622783        0.4180709322        0.8496722790
LA         0.1794924509        0.5812845417        0.7936565640
LA         0.2500779801        0.4993195253        0.8295426544
LA         0.1749011467        0.4498597033        0.8758058211
LA         0.1040381364        0.5316272536        0.8405644112
LA         0.0828266151        0.4859017612        0.8700800137
LA        -0.0191557377        0.3841442886        0.9230743325
LA        -0.0106288919        0.5176370672        0.8555342736
LA        -0.0914649622        0.4628441633        0.8817082517
LA        -0.3138350309        0.6331596197        0.7075425566
LA        -0.1850699151        0.4902938872        0.8516812965
LA         0.2687690755        0.5435926344        0.7951542190
LA         0.2324209101        0.7025858466        0.6725724115
LA         0.1438643245        0.6196062220        0.7716159575
LA         0.1599174561        0.5370837601        0.8282315147
LA         0.0886256411        0.6137922675        0.7844772451
LA         0.0611358111        0.4390872519        0.8963619792
LA        -0.1168188928        0.6244702469        0.7722630751
LA        -0.1394975562        0.5810696152        0.8018095373
LA        -0.2602026749        0.6413152921        0.7218097146
LA         0.2336149487        0.5846621504        0.7769132678
LA         0.0703959621        0.6902087153        0.7201779904
LA         0.0252686426        0.4791797315        0.8773529966
LA         0.0856209641        0.7291117385        0.6790177636
LA         0.0326445621        0.6064244665        0.7944707037
LA        -0.1623871273        0.5364413586        0.8281673078
LA        -0.1325891264        0.7455962176        0.6530745776
LA        -0.2297512490        0.6059652602        0.7615907477
LA         0.0112243578        0.5627347671        0.8265613079
LA         0.1248226949        0.6963159268        0.7067980085
LA         0.1076454982        0.6559552885        0.7470844037
LA         0.0523479349        0.6493350261        0.7586987002
LA         0.0684112392        0.5699503737        0.8188262782
LA        -0.2055286444        0.6477948909        0.7335664630
LA        -0.3239441567        0.7401980923        0.5892087639
LA         0.2158356961        0.6644924328        0.7154472441
LA         0.1942439725        0.7369799363        0.6474023885
LA        -0.0968218721        0.6674181664        0.7383620496
LA         0.1981825416        0.6239018044        0.7559564925
LA        -0.1139459739        0.4151921927        0.9025695309
LA        -0.1700829786        0.7678074258        0.6176921056
LA         0.1397917012        0.7342125326        0.6643720624
LA         0.0150893706        0.6829501324        0.7303091315
LA        -0.0608333029        0.6331203025        0.7716592459
LA        -0.0398234934        0.6737237316        0.7379094950
LA        -0.0820377990        0.5899002157        0.8032979118
LA         0.0982525375        0.7652879914        0.6361452107
LA        -0.0128586884        0.7496038400        0.6617618432
LA        -0.1045554092        0.5456624822        0.8314569273
LA        -0.0247201470        0.5986404831        0.8006363009
LA         0.0434576577        0.7588125376        0.6498576497
LA        -0.0250516127        0.7144321343        0.6992561349
LA         0.0309811836        0.7219653721        0.6912352477
LA        -0.0778206707        0.7415291260        0.6663921507
LA        -0.2305747023        0.6828347161        0.6932330468
LA         0.0317761463        0.8446080734        0.5344412773
LA         0.4368446157        0.0752565623        0.8963834177
LA         0.4426210985       -0.0258010984        0.8963374735
LA         0.3180035886       -0.0855701282        0.9442200330
LA         0.2408283893       -0.1414830874        0.9602000952
LA         0.2944306684       -0.1384308515        0.9455937187
LA         0.2472901193        0.1166432246        0.9618949813
LA        -0.2012841037        0.2144894390        0.9557609482
LA        -0.3325229952        0.1351451349        0.9333618003
LA        -0.1984709993       -0.3611973528        0.9111233368
LA         0.0100092917       -0.0525170347        0.9985698649
LA        -0.0360153054       -0.1512521592        0.9878388948
LA        -0.1647282368        0.1725991606        0.9711200429
LA         0.1003982970       -0.0966488005        0.9902419863
LA         0.0751463296       -0.2497228914        0.9653970720
LA        -0.0412437392       -0.2450946734        0.9686214715
LA        -0.2644103217       -0.0497272079        0.9631273989
LA        -0.1873050014       -0.2677739251        0.9450999743
LA        -0.3714031568       -0.1774797398        0.9113509955
LA        -0.5418339497       -0.0011834458        0.8404847235
LA         0.4219758844       -0.0788215885        0.9031741306
LA         0.5216921632       -0.0716735515        0.8501177500
LA         0.3921954124       -0.0292113712        0.9194179976
LA         0.2647377337       -0.0886024876        0.9602413923
LA         0.3108652735        0.0174977925        0.9502929070
LA         0.1319320241       -0.1466665066        0.9803483446
LA         0.0677002482       -0.0475932984        0.9965698944
LA         0.0491583549       -0.2005963566        0.9784398591
LA         0.0177896076       -0.2497787010        0.9681395201
LA        -0.1077737706       -0.3303480978        0.9376859542
LA        -0.1476792853        0.0782825864        0.9859323838
LA        -0.1349753285       -0.1260881950        0.9827936853
LA         0.0576149803        0.0529730849        0.9969324783
LA        -0.1299781337       -0.0227743723        0.9912552712
LA        -0.0990019611       -0.2360175018        0.9666924798
LA        -0.4521205915       -0.0535440933        0.8903482469
LA        -0.3520168949       -0.0816371869        0.9324266595
LA        -0.3858399181        0.1183976155        0.9149369171
LA         0.4797878931       -0.1724584775        0.8602683600
LA         0.3704414532       -0.0822978763        0.9252027828
LA         0.3751844677       -0.1833841345        0.9086291182
LA         0.2148746033       -0.1940348207        0.9571726037
LA         0.3473877679       -0.1350163147        0.9279506094
LA         0.1141548876        0.0575517817        0.9917945624
LA         0.2794056340        0.0672451843        0.9578155234
LA         0.1866386114       -0.1442153732        0.9717859614
LA         0.0432867666       -0.2979560782        0.9535976255
LA         0.0210564215       -0.1508544410        0.9883317078
LA        -0.0765613594       -0.0155225108        0.9969440355
LA        -0.1523484394       -0.2237484891        0.9626663839
LA        -0.0487001554        0.1909818398        0.9803847366
LA        -0.4057707218       -0.2183033923        0.8875211266
LA        -0.1577872278       -0.0757502805        0.9845633985
LA        -0.4609541503       -0.0018585194        0.8874220063
LA        -0.4392126838       -0.1093832116        0.8916992382
LA         0.3996781465       -0.1312093714        0.9072163359
LA         0.3481727746       -0.2356922299        0.9073174151
LA         0.0915150770        0.0049113868        0.9957915791
LA         0.3223688837       -0.1874837223        0.9278621432
LA         0.2689345062       -0.1909989256        0.9440305301
LA         0.2339705066       -0.0384396327        0.9714835030
LA        -0.0145625717       -0.1032787089        0.9945458460
LA        -0.3142893414        0.1891153824        0.9302997270
LA        -0.1161620837       -0.1767061451        0.9773849337
LA        -0.1653302677       -0.3207392163        0.9326265371
LA        -0.0077756933       -0.2007555456        0.9796105091
LA        -0.2988376074       -0.2458025090        0.9221047722
LA        -0.2644374428       -0.2042019538        0.9425361536
LA         0.0438911850       -0.0994072740        0.9940783459
LA        -0.1930956040       -0.1197504316        0.9738449167
LA        -0.4230845270       -0.1640345301        0.8911184859
LA         0.4275102471       -0.1784858867        0.8862154235
LA         0.4001128880       -0.2309033906        0.8869009533
LA         0.3737072933       -0.2829313017        0.8833418010
LA         0.2674055583       -0.2910502784        0.9185771622
LA         0.2127856851       -0.2940575391        0.9318006310
LA         0.1313651909       -0.2481313194        0.9597781176
LA         0.1602225345       -0.1966527828        0.9672933487
LA         0.0100792703       -0.3427944319        0.9393563678
LA        -0.2159900016       -0.0664991486        0.9741284219
LA        -0.2312200203       -0.4002876272        0.8867395997
LA        -0.2845991678       -0.1494673119        0.9469228249
LA        -0.3328742194       -0.2857092024        0.8986462072
LA        -0.4053123038       -0.0653446967        0.9118399020
LA        -0.2289480220       -0.1627488773        0.9597372589
LA        -0.3531718638       -0.2324385753        0.9062240028
LA         0.3992876138       -0.3287384504        0.8558623912
LA         0.2952348651       -0.2396872308        0.9248710212
LA         0.2414062932       -0.2430513322        0.9394940402
LA         0.1830487097       -0.3435396117        0.9211263242
LA         0.1867687870       -0.2458624158        0.9511409426
LA         0.0688753803       -0.3452409078        0.9359833853
LA        -0.1722504918       -0.1716752091        0.9699780362
LA        -0.0494223015       -0.0643294953        0.9967041447
LA        -0.0126216827        0.1459857916        0.9892061675
LA        -0.0822783706       -0.3795719960        0.9214962667
LA        -0.1736047651       -0.4109763098        0.8949636073
LA        -0.2775597759       -0.2983384718        0.9132112171
LA        -0.3758033681       -0.4116194009        0.8302657992
LA        -0.3187494002       -0.1919980476        0.9281894039
LA         0.3210760045       -0.2873714027        0.9024011725
LA         0.2642852353       -0.3866756994        0.8835356348
LA         0.2386313031       -0.3410550276        0.9092505537
LA         0.1264998442       -0.3451030750        0.9300008909
LA         0.1521012620       -0.3911470039        0.9076724230
LA        -0.0232593827       -0.3857430531        0.9223130152
LA        -0.0490619504       -0.3377510991        0.9399559139
LA        -0.0156576487       -0.2946313168        0.9554827184
LA        -0.2963382707        0.0939490031        0.9504510583
LA        -0.2550171004       -0.3497901594        0.9014505660
LA        -0.2215170994       -0.3095476732        0.9247218029
LA        -0.2987290012       -0.5545357166        0.7766924249
LA        -0.3869077884       -0.2719728709        0.8810976795
LA         0.2932422547       -0.3377853165        0.8943769116
LA         0.2896048240       -0.4307677660        0.8547328107
LA         0.2086930890       -0.3894118066        0.8971096028
LA         0.1199837609       -0.4365877461        0.8916249419
LA         0.1008389344       -0.2979185618        0.9492502514
LA         0.0025620473       -0.4323323867        0.9017106761
LA        -0.0564784463       -0.4272316853        0.9023764581
LA        -0.1320627529       -0.2788861291        0.9512002714
LA        -0.1541361194       -0.5430056255        0.8254616571
LA        -0.3256616821       -0.5082245778        0.7972780239
LA        -0.2084105608       -0.2154390158        0.9540183796
LA        -0.2949952795       -0.4738405038        0.8297306563
LA         0.3440237236       -0.4266425165        0.8364351982
LA         0.2026702349       -0.4792022519        0.8539847643
LA         0.1775354473       -0.4358933069        0.8823141107
LA         0.0535798060       -0.5212908233        0.8516954162
LA         0.0358498065       -0.3897438737        0.9202252465
LA         0.0282381232       -0.4775285400        0.8781623437
LA        -0.0894135580       -0.4673372752        0.8795459549
LA        -0.0745910646       -0.2881835333        0.9546656086
LA        -0.1408217820       -0.3713430910        0.9177546156
LA        -0.3438551754       -0.3754517151        0.8606971755
LA        -0.3987083475       -0.3612799303        0.8429166421
LA         0.3296860901       -0.5958189570        0.7323297430
LA         0.2340890319       -0.4338675915        0.8700351937
LA         0.1452483089       -0.4803229803        0.8649813659
LA        -0.0123621037       -0.6001607713        0.7997838627
LA         0.1572714145       -0.2963952603        0.9420273626
LA        -0.0700860199       -0.5945327923        0.8010110541
LA        -0.0960245264       -0.5510272661        0.8289440526
LA        -0.2059526751       -0.4491960183        0.8693712859
LA        -0.2377326430       -0.4858860789        0.8410695030
LA        -0.2687014387       -0.5210533454        0.8101252669
LA         0.2835709725       -0.5180213678        0.8069952702
LA         0.1701493602       -0.5225699112        0.8354459187
LA         0.0944859614       -0.3915012679        0.9153136951
LA         0.1264060188       -0.6424375015        0.7558409721
LA        -0.0306524239       -0.4733982023        0.8803150408
LA         0.0785235301       -0.5634158450        0.8224333656
LA        -0.1219895947       -0.5059328489        0.8539030924
LA        -0.1597437598       -0.6219981169        0.7665508945
LA        -0.1799778057       -0.4967036045        0.8490544852
LA         0.1945423192       -0.5632057575        0.8030893853
LA         0.0869799990       -0.4798329165        0.8730377151
LA         0.1028936971       -0.6038377783        0.7904383749
LA        -0.0377329717       -0.5572756749        0.8294697373
LA        -0.0049857777       -0.5180968899        0.8553074036
LA        -0.0770097437       -0.6712597711        0.7372108376
LA        -0.1152441337       -0.4200715211        0.9001437145
LA        -0.1857502133       -0.5786127605        0.7941688307
LA         0.2810827216       -0.7105026812        0.6451189376
LA         0.1367681947       -0.5640178965        0.8143575832
LA         0.0450958547       -0.6028339040        0.7965912679
LA         0.0918738711       -0.6806193683        0.7268538143
LA         0.0616718845       -0.7219824380        0.6891574116
LA        -0.0511860562       -0.7092704729        0.7030756602
LA        -0.1903137591       -0.6554852038        0.7308350161
LA         0.1121015808       -0.5227233914        0.8450996933
LA         0.1495519694       -0.6785213382        0.7191960804
LA         0.0128901119       -0.6413236250        0.7671622078
LA        -0.0446974855       -0.6366975287        0.7698171158
LA        -0.0635230629       -0.5130486110        0.8560058080
LA        -0.1097351931       -0.7042141237        0.7014560965
LA         0.1895067947       -0.7466198904        0.6376879441
LA         0.0692117267       -0.6426312736        0.7630431070
LA         0.0202653200       -0.5613380337        0.8273384608
LA        -0.1281230445       -0.5873247057        0.7991459038
LA        -0.2994202393       -0.6310537805        0.7156246547
LA         0.0006713812       -0.8147815377        0.5797677079
LA        -0.0068721350       -0.7825802389        0.6225118019
LA        -0.0189984383       -0.6765648724        0.7361379169
LA        -0.1020609351       -0.6299146718        0.7699292641
LA         0.0834380663       -0.7606699844        0.6437540399
LA        -0.0251816695       -0.7451589451        0.6664113070
LA        -0.1478531470       -0.4591317827        0.8759779980
LA        -0.1913577037       -0.7250132877        0.6616176856
LA        -0.3482890255       -0.6864531320        0.6383391358
LA        -0.1421534200       -0.8339774607        0.5331735179
LA         0.6135346716        0.0221905145       -0.7893559322
LA         0.5596413687        0.0049549884       -0.8287200894
LA         0.3579172581       -0.0214074649       -0.9335078772
LA         0.3100482919       -0.0380324183       -0.9499597843
LA         0.0900313442        0.2544587320       -0.9628837473
LA         0.2609051745        0.1386142498       -0.9553609683
LA         0.3161655408       -0.1366507192       -0.9388109137
LA         0.6594797232       -0.0635781054       -0.7490289174
LA         0.2023117815        0.2465712721       -0.9477724151
LA         0.3138475154        0.1313356322       -0.9403460474
LA         0.0850666646       -0.0507695509       -0.9950809592
LA         0.0578791108       -0.1016090029       -0.9931392748
LA         0.1145030978       -0.1017609056       -0.9881972266
LA        -0.2722596401        0.1045863727       -0.9565230677
LA         0.0567282416        0.0011227524       -0.9983890254
LA        -0.1369115419        0.0542717538       -0.9890954486
LA        -0.2237043108       -0.0965570162       -0.9698624253
LA        -0.4478569407       -0.1733763411       -0.8771344281
LA        -0.4708925119       -0.1237206246       -0.8734720656
LA         0.5124885606       -0.0006814906       -0.8586937818
LA         0.3883919275        0.1761127949       -0.9045087032
LA         0.4094066547       -0.0174982802       -0.9121841926
LA         0.0297913233        0.0532821473       -0.9981350058
LA        -0.0798618025        0.3540055905       -0.9318273093
LA         0.1453064874        0.1525388276       -0.9775571241
LA        -0.0267004970       -0.2499567984       -0.9678887758
LA         0.1122772998        0.0005017042       -0.9936767866
LA        -0.0222719901        0.3538181070       -0.9350490392
LA        -0.0814047830        0.0541088337       -0.9952112818
LA        -0.3856349378       -0.0855822822       -0.9186737004
LA         0.0612259145        0.2058540783       -0.9766654933
LA        -0.1345483772        0.1572465877       -0.9783507780
LA        -0.1627644407        0.1057519799       -0.9809812718
LA        -0.4713318505        0.0588510041       -0.8799902534
LA        -0.5416325666        0.0058580146       -0.8405949360
LA        -0.4177908055        0.0694725792       -0.9058832174
LA        -0.2442714590        0.1558233375       -0.9571052930
LA         0.4950610128        0.0884221278       -0.8643472224
LA        -0.1071778947        0.2080700809       -0.9722241204
LA         0.2836036276        0.1868727119       -0.9405570541
LA         0.1677030414       -0.0000763517       -0.9858375546
LA         0.0887471809        0.1547353146       -0.9839618490
LA         0.3440384193        0.0790840166       -0.9356191984
LA         0.0049284867        0.2071697320       -0.9782926005
LA         0.0592905333        0.1045087074       -0.9927550366
LA         0.0627003547        0.3042765063       -0.9505180026
LA         0.0013163987       -0.1011714554       -0.9948681338
LA        -0.2736404089        0.2043628410       -0.9398706059
LA        -0.3602208687        0.2401338727       -0.9014303350
LA        -0.1359756388        0.2576696496       -0.9566174666
LA        -0.3292604709        0.1982333295       -0.9231961273
LA        -0.3044325524        0.0556545768       -0.9509066143
LA        -0.1923516361        0.0543367186       -0.9798205801
LA        -0.3329882019       -0.0893695988       -0.9386862800
LA         0.4152512872        0.2159770501       -0.8836969403
LA         0.3768724315        0.0314223527       -0.9257320380
LA         0.2026052254        0.1484449610       -0.9679438084
LA         0.2567492345        0.2409769074       -0.9359540377
LA         0.1176339160        0.2036705653       -0.9719467900
LA         0.1741267418        0.1999763336       -0.9642039949
LA        -0.0791418045        0.1572595745       -0.9843810243
LA        -0.0546861893        0.0021763070       -0.9985012190
LA        -0.1921747637        0.2566934877       -0.9471944434
LA        -0.0521830261        0.1057156718       -0.9930262476
LA         0.1410838235       -0.0510999425       -0.9886779812
LA        -0.0512258073        0.2078781304       -0.9768124690
LA        -0.2183022706        0.2067263232       -0.9537338968
LA        -0.4423393059        0.2692803450       -0.8554671438
LA        -0.1895901485        0.1568162876       -0.9692596286
LA        -0.4305800332        0.1675710252       -0.8868600716
LA         0.3938563523        0.2697259603       -0.8787064812
LA         0.4026328233        0.3597804763       -0.8416916410
LA         0.2530896455        0.0494823672       -0.9661765505
LA         0.0325390295        0.1560750330       -0.9872090942
LA         0.1496369633        0.3475216162       -0.9256551763